
                                 *****************
                                 * O   R   C   A *
                                 *****************

                                            #,                                       
                                            ###                                      
                                            ####                                     
                                            #####                                    
                                            ######                                   
                                           ########,                                 
                                     ,,################,,,,,                         
                               ,,#################################,,                 
                          ,,##########################################,,             
                       ,#########################################, ''#####,          
                    ,#############################################,,   '####,        
                  ,##################################################,,,,####,       
                ,###########''''           ''''###############################       
              ,#####''   ,,,,##########,,,,          '''####'''          '####       
            ,##' ,,,,###########################,,,                        '##       
           ' ,,###''''                  '''############,,,                           
         ,,##''                                '''############,,,,        ,,,,,,###''
      ,#''                                            '''#######################'''  
     '                                                          ''''####''''         
             ,#######,   #######,   ,#######,      ##                                
            ,#'     '#,  ##    ##  ,#'     '#,    #''#        ######   ,####,        
            ##       ##  ##   ,#'  ##            #'  '#       #        #'  '#        
            ##       ##  #######   ##           ,######,      #####,   #    #        
            '#,     ,#'  ##    ##  '#,     ,#' ,#      #,         ##   #,  ,#        
             '#######'   ##     ##  '#######'  #'      '#     #####' # '####'        



                  #######################################################
                  #                        -***-                        #
                  #          Department of theory and spectroscopy      #
                  #    Directorship and core code : Frank Neese         #
                  #        Max Planck Institute fuer Kohlenforschung    #
                  #                Kaiser Wilhelm Platz 1               #
                  #                 D-45470 Muelheim/Ruhr               #
                  #                      Germany                        #
                  #                                                     #
                  #                  All rights reserved                #
                  #                        -***-                        #
                  #######################################################


                         Program Version 5.0.4 -  RELEASE  -


 With contributions from (in alphabetic order):
   Daniel Aravena         : Magnetic Suceptibility
   Michael Atanasov       : Ab Initio Ligand Field Theory (pilot matlab implementation)
   Alexander A. Auer      : GIAO ZORA, VPT2 properties, NMR spectrum
   Ute Becker             : Parallelization
   Giovanni Bistoni       : ED, misc. LED, open-shell LED, HFLD
   Martin Brehm           : Molecular dynamics
   Dmytro Bykov           : SCF Hessian
   Vijay G. Chilkuri      : MRCI spin determinant printing, contributions to CSF-ICE
   Dipayan Datta          : RHF DLPNO-CCSD density
   Achintya Kumar Dutta   : EOM-CC, STEOM-CC
   Dmitry Ganyushin       : Spin-Orbit,Spin-Spin,Magnetic field MRCI
   Miquel Garcia          : C-PCM and meta-GGA Hessian, CC/C-PCM, Gaussian charge scheme
   Yang Guo               : DLPNO-NEVPT2, F12-NEVPT2, CIM, IAO-localization
   Andreas Hansen         : Spin unrestricted coupled pair/coupled cluster methods
   Benjamin Helmich-Paris : MC-RPA, TRAH-SCF, COSX integrals
   Lee Huntington         : MR-EOM, pCC
   Robert Izsak           : Overlap fitted RIJCOSX, COSX-SCS-MP3, EOM
   Marcus Kettner         : VPT2
   Christian Kollmar      : KDIIS, OOCD, Brueckner-CCSD(T), CCSD density, CASPT2, CASPT2-K
   Simone Kossmann        : Meta GGA functionals, TD-DFT gradient, OOMP2, MP2 Hessian
   Martin Krupicka        : Initial AUTO-CI
   Lucas Lang             : DCDCAS
   Marvin Lechner         : AUTO-CI (C++ implementation), FIC-MRCC
   Dagmar Lenk            : GEPOL surface, SMD
   Dimitrios Liakos       : Extrapolation schemes; Compound Job, initial MDCI parallelization
   Dimitrios Manganas     : Further ROCIS development; embedding schemes
   Dimitrios Pantazis     : SARC Basis sets
   Anastasios Papadopoulos: AUTO-CI, single reference methods and gradients
   Taras Petrenko         : DFT Hessian,TD-DFT gradient, ASA, ECA, R-Raman, ABS, FL, XAS/XES, NRVS
   Peter Pinski           : DLPNO-MP2, DLPNO-MP2 Gradient
   Christoph Reimann      : Effective Core Potentials
   Marius Retegan         : Local ZFS, SOC
   Christoph Riplinger    : Optimizer, TS searches, QM/MM, DLPNO-CCSD(T), (RO)-DLPNO pert. Triples
   Tobias Risthaus        : Range-separated hybrids, TD-DFT gradient, RPA, STAB
   Michael Roemelt        : Original ROCIS implementation
   Masaaki Saitow         : Open-shell DLPNO-CCSD energy and density
   Barbara Sandhoefer     : DKH picture change effects
   Avijit Sen             : IP-ROCIS
   Kantharuban Sivalingam : CASSCF convergence, NEVPT2, FIC-MRCI
   Bernardo de Souza      : ESD, SOC TD-DFT
   Georgi Stoychev        : AutoAux, RI-MP2 NMR, DLPNO-MP2 response
   Willem Van den Heuvel  : Paramagnetic NMR
   Boris Wezisla          : Elementary symmetry handling
   Frank Wennmohs         : Technical directorship


 We gratefully acknowledge several colleagues who have allowed us to
 interface, adapt or use parts of their codes:
   Stefan Grimme, W. Hujo, H. Kruse, P. Pracht,  : VdW corrections, initial TS optimization,
                  C. Bannwarth, S. Ehlert          DFT functionals, gCP, sTDA/sTD-DF
   Ed Valeev, F. Pavosevic, A. Kumar             : LibInt (2-el integral package), F12 methods
   Garnet Chan, S. Sharma, J. Yang, R. Olivares  : DMRG
   Ulf Ekstrom                                   : XCFun DFT Library
   Mihaly Kallay                                 : mrcc  (arbitrary order and MRCC methods)
   Jiri Pittner, Ondrej Demel                    : Mk-CCSD
   Frank Weinhold                                : gennbo (NPA and NBO analysis)
   Christopher J. Cramer and Donald G. Truhlar   : smd solvation model
   Lars Goerigk                                  : TD-DFT with DH, B97 family of functionals
   V. Asgeirsson, H. Jonsson                     : NEB implementation
   FAccTs GmbH                                   : IRC, NEB, NEB-TS, DLPNO-Multilevel, CI-OPT
                                                   MM, QMMM, 2- and 3-layer-ONIOM, Crystal-QMMM,
                                                   LR-CPCM, SF, NACMEs, symmetry and pop. for TD-DFT,
                                                   nearIR, NL-DFT gradient (VV10), updates on ESD,
                                                   ML-optimized integration grids
   S Lehtola, MJT Oliveira, MAL Marques          : LibXC Library
   Liviu Ungur et al                             : ANISO software


 Your calculation uses the libint2 library for the computation of 2-el integrals
 For citations please refer to: http://libint.valeyev.net

 Your ORCA version has been built with support for libXC version: 5.1.0
 For citations please refer to: https://tddft.org/programs/libxc/

 This ORCA versions uses:
   CBLAS   interface :  Fast vector & matrix operations
   LAPACKE interface :  Fast linear algebra routines
   SCALAPACK package :  Parallel linear algebra routines
   Shared memory     :  Shared parallel matrices
   BLAS/LAPACK       :  OpenBLAS 0.3.15  USE64BITINT DYNAMIC_ARCH NO_AFFINITY SkylakeX SINGLE_THREADED
        Core in use  :  SkylakeX
   Copyright (c) 2011-2014, The OpenBLAS Project




***************************************
The coordinates will be read from file: aiida.coords.xyz
***************************************


================================================================================

----- Orbital basis set information -----
Your calculation utilizes the basis: cc-pVTZ 
       H, B-Ne : Obtained from the ccRepo (grant-hill.group.shef.ac.uk/ccrepo) Feb. 2017
                 T. H. Dunning, Jr., J. Chem. Phys. 90, 1007 (1989)
            He : Obtained from the ccRepo (grant-hill.group.shef.ac.uk/ccrepo) Feb. 2017
                 D. E. Woon, T. H. Dunning, Jr., J. Chem. Phys. 100, 2975 (1994)
  Li-Be, Na-Mg : Obtained from the ccRepo (grant-hill.group.shef.ac.uk/ccrepo) Feb. 2017
                 B. P. Prascher, D. E. Woon, K. A. Peterson, T. H. Dunning, Jr., A. K. Wilson, Theor. Chem. Acc. 128, 69 (2011)
         Al-Ar : Obtained from the ccRepo (grant-hill.group.shef.ac.uk/ccrepo) Feb. 2017
                 D. E. Woon, T. H. Dunning, Jr., J. Chem. Phys. 98, 1358 (1993)
            Ca : Obtained from the Peterson Research Group Website (tyr0.chem.wsu.edu/~kipeters) Feb. 2017
                 J. Koput, K. A. Peterson, J. Phys. Chem. 106, 9595 (2002)
         Sc-Zn : Obtained from the ccRepo (grant-hill.group.shef.ac.uk/ccrepo) Feb. 2017
                 N. B. Balabanov, K. A. Peterson, J. Chem. Phys. 123, 064107 (2005)
                 N. B. Balabanov, K. A. Peterson, J. Chem. Phys. 125, 074110 (2006)
         Ga-Kr : Obtained from the ccRepo (grant-hill.group.shef.ac.uk/ccrepo) Feb. 2017
                 A. K. Wilson, D. E. Woon, K. A. Peterson, T. H. Dunning, Jr., J. Chem. Phys. 110, 7667 (1999)
             Y : Obtained from the ccRepo (grant-hill.group.shef.ac.uk/ccrepo) Feb. 2017
                 K. A. Peterson, D. Figgen, M. Dolg, H. Stoll, J. Chem. Phys. 126, 124101 (2007)
        Ag, Au : Obtained from the Peterson Research Group Website (tyr0.chem.wsu.edu/~kipeters) Feb. 2017
                 K. A. Peterson, C. Puzzarini, Theor. Chem. Acc. 114, 283 (2005)

----- AuxC basis set information -----
Your calculation utilizes the auxiliary basis: cc-pVTZ/C 
  Obtained from the EMSL Basis Set Exchange (bse.pnl.gov) Feb. 2017
  H-He, B-F, Al-Ar, Ga-Kr : F. Weigend, A. Kohn, C. Hattig, J. Chem. Phys. 116, 3175 (2002)
             Li-Be, Na-Mg : C. Haettig, Phys. Chem. Chem. Phys. 7, 59 (2005)
                       Ne : C. Haettig, Phys. Chem. Chem. Phys. 7, 59 (2005)
                            F. Weigend, A. Kohn, C. Hattig, J. Chem. Phys. 116, 3175 (2002)
                    Sc-Zn : J. G. Hill, J. A. Platts, J. Chem. Phys. 128, 044104 (2008)

================================================================================
                                        WARNINGS
                       Please study these warnings very carefully!
================================================================================


WARNING: Geometry Optimization
  ===> : Switching off AutoStart
         For restart on a previous wavefunction, please use MOREAD

INFO   : the flag for use of the SHARK integral package has been found!

================================================================================
                                       INPUT FILE
================================================================================
NAME = aiida.inp
|  1> ### Generated by AiiDA-ORCA Plugin ###
|  2> ! cc-pVTZ MP2 Opt AnFreq NoFrozenCore cc-pVTZ/C
|  3> %mp2 
|  4> 	maxcore 3000
|  5> end
|  6> 
|  7> %pal 
|  8> 	nproc 4
|  9> end
| 10> 
| 11> %scf 
| 12> 	ConvForced true
| 13> 	convergence tight
| 14> end
| 15> 
| 16> * xyzfile 0 1 aiida.coords.xyz
| 17> 
| 18>                          ****END OF INPUT****
================================================================================

                       *****************************
                       * Geometry Optimization Run *
                       *****************************

Geometry optimization settings:
Update method            Update   .... BFGS
Choice of coordinates    CoordSys .... Z-matrix Internals
Initial Hessian          InHess   .... Almoef's Model

Convergence Tolerances:
Energy Change            TolE     ....  5.0000e-06 Eh
Max. Gradient            TolMAXG  ....  3.0000e-04 Eh/bohr
RMS Gradient             TolRMSG  ....  1.0000e-04 Eh/bohr
Max. Displacement        TolMAXD  ....  4.0000e-03 bohr
RMS Displacement         TolRMSD  ....  2.0000e-03 bohr
Strict Convergence                ....  False
------------------------------------------------------------------------------
                        ORCA OPTIMIZATION COORDINATE SETUP
------------------------------------------------------------------------------

The optimization will be done in new redundant internal coordinates
Making redundant internal coordinates   ...  (new redundants) done
Evaluating the initial hessian          ...  (Almloef) done
Evaluating the coordinates              ...  done
Calculating the B-matrix                .... done
Calculating the G-matrix                .... done
Diagonalizing the G-matrix              .... done
The first mode is                       ....    6
The number of degrees of freedom        ....   15

    -----------------------------------------------------------------
                    Redundant Internal Coordinates


    -----------------------------------------------------------------
         Definition                    Initial Value    Approx d2E/dq
    -----------------------------------------------------------------
      1. B(C   1,C   0)                  1.4976         0.420839   
      2. B(O   2,C   1)                  1.2265         1.020163   
      3. B(H   3,C   0)                  1.0928         0.356446   
      4. B(H   4,C   0)                  1.0924         0.356884   
      5. B(H   5,C   0)                  1.0924         0.356884   
      6. B(H   6,C   1)                  1.1031         0.343233   
      7. A(H   3,C   0,H   4)          109.4376         0.289966   
      8. A(C   1,C   0,H   4)          109.1030         0.330260   
      9. A(C   1,C   0,H   3)          110.0680         0.330193   
     10. A(C   1,C   0,H   5)          109.1030         0.330260   
     11. A(H   3,C   0,H   5)          109.4376         0.289966   
     12. A(H   4,C   0,H   5)          109.6779         0.290021   
     13. A(O   2,C   1,H   6)          120.9545         0.378802   
     14. A(C   0,C   1,H   6)          115.5975         0.328140   
     15. A(C   0,C   1,O   2)          123.4480         0.439896   
     16. D(O   2,C   1,C   0,H   4)   -120.0967         0.013094   
     17. D(O   2,C   1,C   0,H   5)    120.0967         0.013094   
     18. D(H   6,C   1,C   0,H   3)   -180.0000         0.013094   
     19. D(H   6,C   1,C   0,H   4)     59.9033         0.013094   
     20. D(H   6,C   1,C   0,H   5)    -59.9033         0.013094   
     21. D(O   2,C   1,C   0,H   3)      0.0000         0.013094   
    -----------------------------------------------------------------

Number of atoms                         .... 7
Number of degrees of freedom            .... 21

         *************************************************************
         *                GEOMETRY OPTIMIZATION CYCLE   1            *
         *************************************************************
---------------------------------
CARTESIAN COORDINATES (ANGSTROEM)
---------------------------------
  C      5.382813    6.091710    5.893111
  C      6.878532    6.017258    5.893111
  O      7.604617    7.005789    5.893111
  H      5.059336    7.135512    5.893111
  H      5.000000    5.592475    6.786222
  H      5.000000    5.592474    5.000000
  H      7.305059    5.000000    5.893111

----------------------------
CARTESIAN COORDINATES (A.U.)
----------------------------
  NO LB      ZA    FRAG     MASS         X           Y           Z
   0 C     6.0000    0    12.011   10.172042   11.511664   11.136366
   1 C     6.0000    0    12.011   12.998541   11.370969   11.136366
   2 O     8.0000    0    15.999   14.370644   13.239022   11.136366
   3 H     1.0000    0     1.008    9.560759   13.484163   11.136365
   4 H     1.0000    0     1.008    9.448631   10.568245   12.824101
   5 H     1.0000    0     1.008    9.448631   10.568245    9.448631
   6 H     1.0000    0     1.008   13.804561    9.448631   11.136366

--------------------------------
INTERNAL COORDINATES (ANGSTROEM)
--------------------------------
 C      0   0   0     0.000000000000     0.00000000     0.00000000
 C      1   0   0     1.497570912021     0.00000000     0.00000000
 O      2   1   0     1.226537296155   123.44798987     0.00000000
 H      1   2   3     1.092776268224   110.06800522     0.00000000
 H      1   2   3     1.092441785262   109.10295613   239.90330103
 H      1   2   3     1.092441792773   109.10295742   120.09672874
 H      2   1   3     1.103058825768   115.59751910   179.99999628

---------------------------
INTERNAL COORDINATES (A.U.)
---------------------------
 C      0   0   0     0.000000000000     0.00000000     0.00000000
 C      1   0   0     2.829998889847     0.00000000     0.00000000
 O      2   1   0     2.317819582774   123.44798987     0.00000000
 H      1   2   3     2.065047872592   110.06800522     0.00000000
 H      1   2   3     2.064415791397   109.10295613   239.90330103
 H      1   2   3     2.064415805592   109.10295742   120.09672874
 H      2   1   3     2.084479090305   115.59751910   179.99999628

---------------------
BASIS SET INFORMATION
---------------------
There are 3 groups of distinct atoms

 Group   1 Type C   : 18s5p2d1f contracted to 4s3p2d1f pattern {8811/311/11/1}
 Group   2 Type O   : 18s5p2d1f contracted to 4s3p2d1f pattern {8811/311/11/1}
 Group   3 Type H   : 5s2p1d contracted to 3s2p1d pattern {311/11/1}

Atom   0C    basis set group =>   1
Atom   1C    basis set group =>   1
Atom   2O    basis set group =>   2
Atom   3H    basis set group =>   3
Atom   4H    basis set group =>   3
Atom   5H    basis set group =>   3
Atom   6H    basis set group =>   3
---------------------------------
AUXILIARY/C BASIS SET INFORMATION
---------------------------------
There are 3 groups of distinct atoms

 Group   1 Type C   : 8s6p5d3f1g contracted to 8s6p5d3f1g pattern {11111111/111111/11111/111/1}
 Group   2 Type O   : 8s6p5d3f1g contracted to 8s6p5d3f1g pattern {11111111/111111/11111/111/1}
 Group   3 Type H   : 4s3p2d1f contracted to 4s3p2d1f pattern {1111/111/11/1}

Atom   0C    basis set group =>   1
Atom   1C    basis set group =>   1
Atom   2O    basis set group =>   2
Atom   3H    basis set group =>   3
Atom   4H    basis set group =>   3
Atom   5H    basis set group =>   3
Atom   6H    basis set group =>   3


           ************************************************************
           *        Program running with 4 parallel MPI-processes     *
           *              working on a common directory               *
           ************************************************************
------------------------------------------------------------------------------
                           ORCA GTO INTEGRAL CALCULATION
------------------------------------------------------------------------------
------------------------------------------------------------------------------
                   ___                                                        
                  /   \      - P O W E R E D   B Y -                         
                 /     \                                                     
                 |  |  |   _    _      __       _____    __    __             
                 |  |  |  | |  | |    /  \     |  _  \  |  |  /  |          
                  \  \/   | |  | |   /    \    | | | |  |  | /  /          
                 / \  \   | |__| |  /  /\  \   | |_| |  |  |/  /          
                |  |  |   |  __  | /  /__\  \  |    /   |      \           
                |  |  |   | |  | | |   __   |  |    \   |  |\   \          
                \     /   | |  | | |  |  |  |  | |\  \  |  | \   \       
                 \___/    |_|  |_| |__|  |__|  |_| \__\ |__|  \__/        
                                                                              
                      - O R C A' S   B I G   F R I E N D -                    
                                      &                                       
                       - I N T E G R A L  F E E D E R -                       
                                                                              
 v1 FN, 2020, v2 2021                                                         
------------------------------------------------------------------------------


Reading SHARK input file aiida.SHARKINP.tmp ... ok
----------------------
SHARK INTEGRAL PACKAGE
----------------------

Number of atoms                             ...      7
Number of basis functions                   ...    164
Number of shells                            ...     72
Maximum angular momentum                    ...      3
Integral batch strategy                     ... SHARK/LIBINT Hybrid
RI-J (if used) integral strategy            ... SPLIT-RIJ (Revised 2003 algorithm where possible)
Printlevel                                  ...      1
Contraction scheme used                     ... PARTIAL GENERAL contraction
Coulomb Range Separation                    ... NOT USED
Exchange Range Separation                   ... NOT USED
Finite Nucleus Model                        ... NOT USED
Auxiliary Coulomb fitting basis             ... NOT available
Auxiliary J/K fitting basis                 ... NOT available
Auxiliary Correlation fitting basis         ... AVAILABLE
   # of basis functions in Aux-C            ...    363
   # of shells in Aux-C                     ...    109
   Maximum angular momentum in Aux-C        ...      4
Auxiliary 'external' fitting basis          ... NOT available
Integral threshold                          ...     2.500000e-11
Primitive cut-off                           ...     2.500000e-12
Primitive pair pre-selection threshold      ...     2.500000e-12

Calculating pre-screening integrals         ... done (  0.0 sec) Dimension = 72
Calculating pre-screening integrals (ORCA)  ... done (  0.1 sec) Dimension = 54
Organizing shell pair data                  ... done (  0.0 sec)
Shell pair information
Total number of shell pairs                 ...      2628
Shell pairs after pre-screening             ...      2425
Total number of primitive shell pairs       ...      3762
Primitive shell pairs kept                  ...      3247
          la=0 lb=0:    747 shell pairs
          la=1 lb=0:    688 shell pairs
          la=1 lb=1:    153 shell pairs
          la=2 lb=0:    400 shell pairs
          la=2 lb=1:    170 shell pairs
          la=2 lb=2:     55 shell pairs
          la=3 lb=0:    125 shell pairs
          la=3 lb=1:     51 shell pairs
          la=3 lb=2:     30 shell pairs
          la=3 lb=3:      6 shell pairs

Calculating one electron integrals          ... done (  0.0 sec)
Calculating RI/C V-Matrix + Cholesky decomp.... done (  0.0 sec)
Calculating Nuclear repulsion               ... done (  0.0 sec) ENN=     69.474369960715 Eh

SHARK setup successfully completed in   0.2 seconds

Maximum memory used throughout the entire GTOINT-calculation: 19.1 MB


           ************************************************************
           *        Program running with 4 parallel MPI-processes     *
           *              working on a common directory               *
           ************************************************************
-------------------------------------------------------------------------------
                                 ORCA SCF
-------------------------------------------------------------------------------

------------
SCF SETTINGS
------------
Hamiltonian:
 Ab initio Hamiltonian  Method          .... Hartree-Fock(GTOs)


General Settings:
 Integral files         IntName         .... aiida
 Hartree-Fock type      HFTyp           .... RHF
 Total Charge           Charge          ....    0
 Multiplicity           Mult            ....    1
 Number of Electrons    NEL             ....   24
 Basis Dimension        Dim             ....  146
 Nuclear Repulsion      ENuc            ....     69.4743699607 Eh

Convergence Acceleration:
 DIIS                   CNVDIIS         .... on
   Start iteration      DIISMaxIt       ....    12
   Startup error        DIISStart       ....  0.200000
   # of expansion vecs  DIISMaxEq       ....     5
   Bias factor          DIISBfac        ....   1.050
   Max. coefficient     DIISMaxC        ....  10.000
 Trust-Rad. Augm. Hess. CNVTRAH         .... auto
   Auto Start mean grad. ratio tolernc. ....  1.125000
   Auto Start start iteration           ....    20
   Auto Start num. interpolation iter.  ....    10
   Max. Number of Micro iterations      ....    16
   Max. Number of Macro iterations      .... Maxiter - #DIIS iter
   Number of Davidson start vectors     ....     2
   Converg. threshold I  (grad. norm)   ....   1.000e-05
   Converg. threshold II (energy diff.) ....   1.000e-08
   Grad. Scal. Fac. for Micro threshold ....   0.100
   Minimum threshold for Micro iter.    ....   0.010
   NR start threshold (gradient norm)   ....   0.001
   Initial trust radius                 ....   0.400
   Minimum AH scaling param. (alpha)    ....   1.000
   Maximum AH scaling param. (alpha)    .... 1000.000
   Orbital update algorithm             .... Taylor
   White noise on init. David. guess    .... on
   Maximum white noise                  ....   0.010
   Quad. conv. algorithm                .... NR
 SOSCF                  CNVSOSCF        .... on
   Start iteration      SOSCFMaxIt      ....   150
   Startup grad/error   SOSCFStart      ....  0.003300
 Level Shifting         CNVShift        .... on
   Level shift para.    LevelShift      ....    0.2500
   Turn off err/grad.   ShiftErr        ....    0.0010
 Zerner damping         CNVZerner       .... off
 Static damping         CNVDamp         .... on
   Fraction old density DampFac         ....    0.7000
   Max. Damping (<1)    DampMax         ....    0.9800
   Min. Damping (>=0)   DampMin         ....    0.0000
   Turn off err/grad.   DampErr         ....    0.1000
 Fernandez-Rico         CNVRico         .... off

SCF Procedure:
 Maximum # iterations   MaxIter         ....   125
 SCF integral mode      SCFMode         .... Direct
   Integral package                     .... SHARK and LIBINT hybrid scheme
 Reset frequency        DirectResetFreq ....    20
 Integral Threshold     Thresh          ....  2.500e-11 Eh
 Primitive CutOff       TCut            ....  2.500e-12 Eh

Convergence Tolerance:
 Convergence Check Mode ConvCheckMode   .... Total+1el-Energy
 Convergence forced     ConvForced      .... 1
 Energy Change          TolE            ....  1.000e-08 Eh
 1-El. energy change                    ....  1.000e-05 Eh
 Orbital Gradient       TolG            ....  1.000e-05
 Orbital Rotation angle TolX            ....  1.000e-05
 DIIS Error             TolErr          ....  5.000e-07


Diagonalization of the overlap matrix:
Smallest eigenvalue                        ... 1.020e-03
Time for diagonalization                   ...    0.004 sec
Threshold for overlap eigenvalues          ... 1.000e-08
Number of eigenvalues below threshold      ... 0
Time for construction of square roots      ...    0.002 sec
Total time needed                          ...    0.007 sec

Time for model grid setup =    0.025 sec

------------------------------
INITIAL GUESS: MODEL POTENTIAL
------------------------------
Loading Hartree-Fock densities                     ... done
Calculating cut-offs                               ... done
Initializing the effective Hamiltonian             ... done
Setting up the integral package (SHARK)            ... done
Starting the Coulomb interaction                   ... done (   0.0 sec)
Reading the grid                                   ... done
Mapping shells                                     ... done
Starting the XC term evaluation                    ... done (   0.0 sec)
Transforming the Hamiltonian                       ... done (   0.0 sec)
Diagonalizing the Hamiltonian                      ... done (   0.0 sec)
Back transforming the eigenvectors                 ... done (   0.0 sec)
Now organizing SCF variables                       ... done
                      ------------------
                      INITIAL GUESS DONE (   0.1 sec)
                      ------------------
--------------
SCF ITERATIONS
--------------
ITER       Energy         Delta-E        Max-DP      RMS-DP      [F,P]     Damp
               ***  Starting incremental Fock matrix formation  ***
  0   -152.8072114218   0.000000000000 0.03467103  0.00099895  0.3233833 0.7000
  1   -152.8661110208  -0.058899599044 0.03032729  0.00078069  0.1977303 0.7000
                               ***Turning on DIIS***
  2   -152.9005714486  -0.034460427784 0.01568768  0.00047317  0.1139639 0.7000
  3   -153.2390163861  -0.338444937492 0.03764453  0.00084526  0.0827330 0.0000
  4   -152.9529540825   0.286062303554 0.01437050  0.00025455  0.0081194 0.0000
  5   -152.9767724125  -0.023818330009 0.00777428  0.00015168  0.0040715 0.0000
  6   -152.9723584791   0.004413933452 0.00365855  0.00007500  0.0035244 0.0000
                      *** Initiating the SOSCF procedure ***
                           *** Shutting down DIIS ***
                      *** Re-Reading the Fockian *** 
                      *** Removing any level shift *** 
ITER      Energy       Delta-E        Grad      Rot      Max-DP    RMS-DP
  7   -152.97137763   0.0009808498  0.001044  0.001044  0.002076  0.000043
               *** Restarting incremental Fock matrix formation ***
  8   -152.97214361  -0.0007659790  0.000463  0.000728  0.000904  0.000020
  9   -152.97214519  -0.0000015771  0.000219  0.000812  0.000939  0.000021
 10   -152.97214589  -0.0000007090  0.000052  0.000077  0.000121  0.000003
 11   -152.97214591  -0.0000000183  0.000038  0.000044  0.000031  0.000001
 12   -152.97214592  -0.0000000091  0.000005  0.000009  0.000012  0.000000
                  ***Gradient check signals convergence***
              ***Rediagonalizing the Fockian in SOSCF/NRSCF***

               *****************************************************
               *                     SUCCESS                       *
               *           SCF CONVERGED AFTER  13 CYCLES          *
               *****************************************************


----------------
TOTAL SCF ENERGY
----------------

Total Energy       :         -152.97214592 Eh           -4162.58371 eV

Components:
Nuclear Repulsion  :           69.47436996 Eh            1890.49372 eV
Electronic Energy  :         -222.44651588 Eh           -6053.07743 eV
One Electron Energy:         -345.44587722 Eh           -9400.06021 eV
Two Electron Energy:          122.99936134 Eh            3346.98278 eV

Virial components:
Potential Energy   :         -305.66005058 Eh           -8317.43283 eV
Kinetic Energy     :          152.68790465 Eh            4154.84911 eV
Virial Ratio       :            2.00186158


---------------
SCF CONVERGENCE
---------------

  Last Energy change         ...   -2.5426e-10  Tolerance :   1.0000e-08
  Last MAX-Density change    ...    3.3536e-06  Tolerance :   1.0000e-07
  Last RMS-Density change    ...    7.8595e-08  Tolerance :   5.0000e-09
  Last Orbital Gradient      ...    1.6675e-06  Tolerance :   1.0000e-05
  Last Orbital Rotation      ...    3.7166e-06  Tolerance :   1.0000e-05

             **** THE GBW FILE WAS UPDATED (aiida.gbw) ****
             **** DENSITY aiida.scfp WAS UPDATED ****
             **** ENERGY FILE WAS UPDATED (aiida.en.tmp) ****
             **** THE GBW FILE WAS UPDATED (aiida.gbw) ****
             **** DENSITY aiida.scfp WAS UPDATED ****
----------------
ORBITAL ENERGIES
----------------

  NO   OCC          E(Eh)            E(eV) 
   0   2.0000     -20.556735      -559.3772 
   1   2.0000     -11.336791      -308.4898 
   2   2.0000     -11.242391      -305.9210 
   3   2.0000      -1.380682       -37.5703 
   4   2.0000      -1.023152       -27.8414 
   5   2.0000      -0.803525       -21.8650 
   6   2.0000      -0.670469       -18.2444 
   7   2.0000      -0.618937       -16.8421 
   8   2.0000      -0.608482       -16.5576 
   9   2.0000      -0.556872       -15.1532 
  10   2.0000      -0.497899       -13.5485 
  11   2.0000      -0.427632       -11.6365 
  12   0.0000       0.137664         3.7460 
  13   0.0000       0.138588         3.7712 
  14   0.0000       0.173419         4.7190 
  15   0.0000       0.198745         5.4081 
  16   0.0000       0.217107         5.9078 
  17   0.0000       0.289823         7.8865 
  18   0.0000       0.320446         8.7198 
  19   0.0000       0.383422        10.4334 
  20   0.0000       0.403029        10.9670 
  21   0.0000       0.469373        12.7723 
  22   0.0000       0.479888        13.0584 
  23   0.0000       0.509152        13.8547 
  24   0.0000       0.576905        15.6984 
  25   0.0000       0.615323        16.7438 
  26   0.0000       0.618743        16.8369 
  27   0.0000       0.624701        16.9990 
  28   0.0000       0.646213        17.5843 
  29   0.0000       0.711278        19.3549 
  30   0.0000       0.728908        19.8346 
  31   0.0000       0.745495        20.2859 
  32   0.0000       0.822839        22.3906 
  33   0.0000       0.848323        23.0840 
  34   0.0000       0.906643        24.6710 
  35   0.0000       0.923369        25.1261 
  36   0.0000       0.949681        25.8421 
  37   0.0000       1.044900        28.4332 
  38   0.0000       1.134085        30.8600 
  39   0.0000       1.136335        30.9212 
  40   0.0000       1.159453        31.5503 
  41   0.0000       1.162195        31.6249 
  42   0.0000       1.193578        32.4789 
  43   0.0000       1.256943        34.2032 
  44   0.0000       1.262930        34.3661 
  45   0.0000       1.314914        35.7806 
  46   0.0000       1.360785        37.0289 
  47   0.0000       1.396830        38.0097 
  48   0.0000       1.413210        38.4554 
  49   0.0000       1.454612        39.5820 
  50   0.0000       1.506966        41.0066 
  51   0.0000       1.510335        41.0983 
  52   0.0000       1.586073        43.1592 
  53   0.0000       1.641835        44.6766 
  54   0.0000       1.660440        45.1829 
  55   0.0000       1.776362        48.3373 
  56   0.0000       1.900550        51.7166 
  57   0.0000       1.989040        54.1245 
  58   0.0000       2.072046        56.3832 
  59   0.0000       2.169865        59.0450 
  60   0.0000       2.343722        63.7759 
  61   0.0000       2.422241        65.9125 
  62   0.0000       2.439237        66.3750 
  63   0.0000       2.454988        66.8036 
  64   0.0000       2.531488        68.8853 
  65   0.0000       2.534248        68.9604 
  66   0.0000       2.637218        71.7623 
  67   0.0000       2.801002        76.2191 
  68   0.0000       2.832288        77.0705 
  69   0.0000       2.845827        77.4389 
  70   0.0000       2.946444        80.1768 
  71   0.0000       2.988854        81.3308 
  72   0.0000       3.037263        82.6481 
  73   0.0000       3.072824        83.6158 
  74   0.0000       3.089215        84.0618 
  75   0.0000       3.126332        85.0718 
  76   0.0000       3.175082        86.3984 
  77   0.0000       3.214509        87.4712 
  78   0.0000       3.247306        88.3637 
  79   0.0000       3.281649        89.2982 
  80   0.0000       3.282230        89.3140 
  81   0.0000       3.380938        92.0000 
  82   0.0000       3.401963        92.5721 
  83   0.0000       3.424493        93.1852 
  84   0.0000       3.446504        93.7841 
  85   0.0000       3.537564        96.2620 
  86   0.0000       3.568451        97.1025 
  87   0.0000       3.582484        97.4843 
  88   0.0000       3.620590        98.5213 
  89   0.0000       3.691648       100.4549 
  90   0.0000       3.724245       101.3418 
  91   0.0000       3.747377       101.9713 
  92   0.0000       3.778315       102.8132 
  93   0.0000       3.784826       102.9903 
  94   0.0000       3.818537       103.9077 
  95   0.0000       3.980374       108.3115 
  96   0.0000       4.021832       109.4396 
  97   0.0000       4.072380       110.8151 
  98   0.0000       4.083696       111.1230 
  99   0.0000       4.130764       112.4038 
 100   0.0000       4.138608       112.6172 
 101   0.0000       4.199572       114.2762 
 102   0.0000       4.214057       114.6703 
 103   0.0000       4.292393       116.8020 
 104   0.0000       4.313313       117.3712 
 105   0.0000       4.351384       118.4072 
 106   0.0000       4.445044       120.9558 
 107   0.0000       4.463826       121.4669 
 108   0.0000       4.507364       122.6516 
 109   0.0000       4.517456       122.9262 
 110   0.0000       4.593611       124.9985 
 111   0.0000       4.661304       126.8405 
 112   0.0000       4.683030       127.4317 
 113   0.0000       4.761929       129.5787 
 114   0.0000       4.884787       132.9218 
 115   0.0000       4.991535       135.8266 
 116   0.0000       5.111476       139.0903 
 117   0.0000       5.134874       139.7270 
 118   0.0000       5.151702       140.1849 
 119   0.0000       5.242197       142.6474 
 120   0.0000       5.353639       145.6799 
 121   0.0000       5.421979       147.5395 
 122   0.0000       5.487650       149.3265 
 123   0.0000       5.507970       149.8795 
 124   0.0000       5.584643       151.9659 
 125   0.0000       5.596956       152.3009 
 126   0.0000       5.608303       152.6097 
 127   0.0000       5.641439       153.5113 
 128   0.0000       5.685188       154.7018 
 129   0.0000       5.745424       156.3409 
 130   0.0000       5.901606       160.5909 
 131   0.0000       6.053127       164.7140 
 132   0.0000       6.204749       168.8398 
 133   0.0000       6.207293       168.9090 
 134   0.0000       6.222548       169.3241 
 135   0.0000       6.645880       180.8436 
 136   0.0000       6.653253       181.0442 
 137   0.0000       6.883202       187.3014 
 138   0.0000       6.918990       188.2753 
 139   0.0000       7.227286       196.6644 
 140   0.0000       7.333358       199.5508 
 141   0.0000       7.496499       203.9901 
 142   0.0000       7.534299       205.0187 
 143   0.0000      10.508189       285.9424 
 144   0.0000      13.244345       360.3969 
 145   0.0000      13.976956       380.3323 

                    ********************************
                    * MULLIKEN POPULATION ANALYSIS *
                    ********************************

-----------------------
MULLIKEN ATOMIC CHARGES
-----------------------
   0 C :   -0.249600
   1 C :    0.211413
   2 O :   -0.356714
   3 H :    0.118463
   4 H :    0.096539
   5 H :    0.096539
   6 H :    0.083360
Sum of atomic charges:    0.0000000

--------------------------------
MULLIKEN REDUCED ORBITAL CHARGES
--------------------------------
  0 C s       :     3.238383  s :     3.238383
      pz      :     0.987083  p :     2.946298
      px      :     0.908896
      py      :     1.050319
      dz2     :     0.012876  d :     0.060575
      dxz     :     0.007092
      dyz     :     0.010894
      dx2y2   :     0.019546
      dxy     :     0.010168
      f0      :     0.000103  f :     0.004344
      f+1     :     0.000810
      f-1     :     0.001196
      f+2     :     0.000189
      f-2     :    -0.000025
      f+3     :     0.001449
      f-3     :     0.000623
  1 C s       :     3.232014  s :     3.232014
      pz      :     0.631934  p :     2.357185
      px      :     0.875403
      py      :     0.849848
      dz2     :     0.010462  d :     0.183273
      dxz     :     0.029001
      dyz     :     0.027899
      dx2y2   :     0.073425
      dxy     :     0.042485
      f0      :     0.001865  f :     0.016116
      f+1     :     0.000815
      f-1     :     0.000586
      f+2     :     0.000754
      f-2     :     0.002337
      f+3     :     0.004150
      f-3     :     0.005608
  2 O s       :     3.765889  s :     3.765889
      pz      :     1.323847  p :     4.553254
      px      :     1.692218
      py      :     1.537189
      dz2     :     0.003259  d :     0.035269
      dxz     :     0.004703
      dyz     :     0.008658
      dx2y2   :     0.006902
      dxy     :     0.011748
      f0      :     0.000167  f :     0.002302
      f+1     :     0.000120
      f-1     :     0.000195
      f+2     :     0.000049
      f-2     :     0.000483
      f+3     :     0.000752
      f-3     :     0.000536
  3 H s       :     0.852974  s :     0.852974
      pz      :     0.008024  p :     0.026292
      px      :     0.006811
      py      :     0.011458
      dz2     :     0.000200  d :     0.002271
      dxz     :     0.000039
      dyz     :     0.000615
      dx2y2   :     0.000651
      dxy     :     0.000767
  4 H s       :     0.870843  s :     0.870843
      pz      :     0.009593  p :     0.030280
      px      :     0.011651
      py      :     0.009036
      dz2     :     0.000619  d :     0.002338
      dxz     :     0.000636
      dyz     :     0.000531
      dx2y2   :     0.000330
      dxy     :     0.000221
  5 H s       :     0.870843  s :     0.870843
      pz      :     0.009593  p :     0.030280
      px      :     0.011651
      py      :     0.009036
      dz2     :     0.000619  d :     0.002338
      dxz     :     0.000636
      dyz     :     0.000531
      dx2y2   :     0.000330
      dxy     :     0.000221
  6 H s       :     0.894651  s :     0.894651
      pz      :     0.003949  p :     0.019750
      px      :     0.009087
      py      :     0.006714
      dz2     :     0.000181  d :     0.002239
      dxz     :     0.000041
      dyz     :     0.000300
      dx2y2   :     0.000705
      dxy     :     0.001013


                     *******************************
                     * LOEWDIN POPULATION ANALYSIS *
                     *******************************

----------------------
LOEWDIN ATOMIC CHARGES
----------------------
   0 C :    0.103661
   1 C :   -0.129176
   2 O :    0.122882
   3 H :   -0.014332
   4 H :   -0.018094
   5 H :   -0.018094
   6 H :   -0.046848

-------------------------------
LOEWDIN REDUCED ORBITAL CHARGES
-------------------------------
  0 C s       :     2.669039  s :     2.669039
      pz      :     0.978599  p :     2.917819
      px      :     0.949317
      py      :     0.989903
      dz2     :     0.054547  d :     0.280992
      dxz     :     0.045159
      dyz     :     0.043250
      dx2y2   :     0.080531
      dxy     :     0.057504
      f0      :     0.001277  f :     0.028489
      f+1     :     0.005089
      f-1     :     0.005047
      f+2     :     0.001968
      f-2     :     0.003295
      f+3     :     0.006381
      f-3     :     0.005432
  1 C s       :     2.772115  s :     2.772115
      pz      :     0.611397  p :     2.578435
      px      :     0.985534
      py      :     0.981503
      dz2     :     0.041488  d :     0.679801
      dxz     :     0.089997
      dyz     :     0.062006
      dx2y2   :     0.284101
      dxy     :     0.202209
      f0      :     0.006091  f :     0.098826
      f+1     :     0.005343
      f-1     :     0.007007
      f+2     :     0.005341
      f-2     :     0.013039
      f+3     :     0.019825
      f-3     :     0.042180
  2 O s       :     3.394748  s :     3.394748
      pz      :     1.240299  p :     4.411214
      px      :     1.617448
      py      :     1.553468
      dz2     :     0.007311  d :     0.066273
      dxz     :     0.004200
      dyz     :     0.007706
      dx2y2   :     0.022069
      dxy     :     0.024986
      f0      :     0.000243  f :     0.004882
      f+1     :     0.000326
      f-1     :     0.000460
      f+2     :     0.000046
      f-2     :     0.000495
      f+3     :     0.001454
      f-3     :     0.001858
  3 H s       :     0.837858  s :     0.837858
      pz      :     0.037673  p :     0.148486
      px      :     0.038542
      py      :     0.072271
      dz2     :     0.002332  d :     0.027988
      dxz     :     0.000517
      dyz     :     0.008636
      dx2y2   :     0.007699
      dxy     :     0.008804
  4 H s       :     0.835728  s :     0.835728
      pz      :     0.061661  p :     0.154254
      px      :     0.045210
      py      :     0.047383
      dz2     :     0.008823  d :     0.028112
      dxz     :     0.006418
      dyz     :     0.006601
      dx2y2   :     0.003695
      dxy     :     0.002575
  5 H s       :     0.835728  s :     0.835728
      pz      :     0.061661  p :     0.154254
      px      :     0.045210
      py      :     0.047383
      dz2     :     0.008823  d :     0.028112
      dxz     :     0.006418
      dyz     :     0.006601
      dx2y2   :     0.003695
      dxy     :     0.002575
  6 H s       :     0.885720  s :     0.885720
      pz      :     0.020925  p :     0.137166
      px      :     0.038933
      py      :     0.077308
      dz2     :     0.002559  d :     0.023962
      dxz     :     0.000445
      dyz     :     0.004359
      dx2y2   :     0.008199
      dxy     :     0.008400


                      *****************************
                      * MAYER POPULATION ANALYSIS *
                      *****************************

  NA   - Mulliken gross atomic population
  ZA   - Total nuclear charge
  QA   - Mulliken gross atomic charge
  VA   - Mayer's total valence
  BVA  - Mayer's bonded valence
  FA   - Mayer's free valence

  ATOM       NA         ZA         QA         VA         BVA        FA
  0 C      6.2496     6.0000    -0.2496     3.7777     3.7777     0.0000
  1 C      5.7886     6.0000     0.2114     3.9784     3.9784     0.0000
  2 O      8.3567     8.0000    -0.3567     2.1017     2.1017     0.0000
  3 H      0.8815     1.0000     0.1185     0.9932     0.9932     0.0000
  4 H      0.9035     1.0000     0.0965     0.9857     0.9857     0.0000
  5 H      0.9035     1.0000     0.0965     0.9857     0.9857    -0.0000
  6 H      0.9166     1.0000     0.0834     0.9636     0.9636     0.0000

  Mayer bond orders larger than 0.100000
B(  0-C ,  1-C ) :   0.9326 B(  0-C ,  3-H ) :   0.9694 B(  0-C ,  4-H ) :   0.9637 
B(  0-C ,  5-H ) :   0.9637 B(  1-C ,  2-O ) :   2.0747 B(  1-C ,  6-H ) :   0.9571 


-------
TIMINGS
-------

Total SCF time: 0 days 0 hours 0 min 12 sec 

Total time                  ....      12.108 sec
Sum of individual times     ....      11.909 sec  ( 98.4%)

Fock matrix formation       ....      11.706 sec  ( 96.7%)
Diagonalization             ....       0.054 sec  (  0.4%)
Density matrix formation    ....       0.005 sec  (  0.0%)
Population analysis         ....       0.006 sec  (  0.1%)
Initial guess               ....       0.039 sec  (  0.3%)
Orbital Transformation      ....       0.000 sec  (  0.0%)
Orbital Orthonormalization  ....       0.000 sec  (  0.0%)
DIIS solution               ....       0.037 sec  (  0.3%)
SOSCF solution              ....       0.037 sec  (  0.3%)

Maximum memory used throughout the entire SCF-calculation: 229.4 MB


           ************************************************************
           *        Program running with 4 parallel MPI-processes     *
           *              working on a common directory               *
           ************************************************************

------------------------------------------------------------------------------
                                ORCA  MP2 
------------------------------------------------------------------------------

MP2 will be done in the AO integral direct mode
The Q1-step will be done using symmetric double matrices
Dimension of the basis                    ...  146
Memory devoted for MP2                    ... 3000 MB   
Memory needed for all in one shot         ...   37 MB
Number of MOs that can be treated together...  249      
MP2 density construction                  ... relaxed
The MP2 gradient is requested => amplitudes will be stored on disk
Total number of MOs              ...   12
Number of MOs treated per batch  ...    3 
Number of batches necessary      ...    1 
OPERATORS   0/  0 PASS   0
-----------------------------------------------
 MP2 CORRELATION ENERGY   :     -0.613376415 Eh
-----------------------------------------------


---------------------
MP2 DENSITY FORMATION
---------------------

Completing the external part of the density      ... done
Storing the unrelaxed density                    ... done

Calculating G(D)                                 ... done
Completing the Lagrangian                        ... done
Solving the Z-vector equations                   ... 

------------------------------------------------------------------------------
                           ORCA CP-SCF CALCULATION
------------------------------------------------------------------------------

Input orbitals are from        ... aiida.gbw
Input Perturbation             ... aiida.pin.tmp
Wavefunction output            ... aiida.pout.tmp
Perturbation mode              ... Real perturbation (singlet)
Solver                         ... POPLE
Max. number of iterations      ... 128
Convergence tolerance          ... 1.000e-04
Integral handling              ... Direct
Number of perturbations        ... 1
Number of operators            ... 1
Orbital ranges used for CP-SCF:
 Operator 0:  Orbitals   0... 11  to  12...145
Variables per perturbation     ... 1608
Memory available               ... 1015.4 MB
Memory needed per perturbation ...   1.3 MB
Perturbations treated per batch... 1
Number of batches              ... 1
     CP-SCF ITERATION   0:   6.3839e-02 (   1.3 sec)
     CP-SCF ITERATION   1:   1.8914e-02 (   1.4 sec)
     CP-SCF ITERATION   2:   7.7078e-03 (   1.4 sec)
     CP-SCF ITERATION   3:   2.2679e-03 (   1.4 sec)
     CP-SCF ITERATION   4:   7.6046e-04 (   1.4 sec)
     CP-SCF ITERATION   5:   2.3101e-04 (   1.4 sec)
     CP-SCF ITERATION   6:   5.6142e-05 (   1.4 sec)
                    *** THE CP-SCF HAS CONVERGED ***
                                                 ... done
Finalizing the relaxed density                   ... done
Transforming P to the AO basis                   ... done
Storing the relaxed density                      ... done

------------------------------------
ENERGY WEIGHTED DENSITY FINALIZATION
------------------------------------

Gathering the parts of the W-matrix              ...                                                      done
Forming the Z-density                            ... done
Transforming Z to the AO basis                   ... done
Calculating G(Z)                                 ... done
Finalizing the W-matrix                          ...                                                      done
Transforming W to the AO basis and storing       ... done

                *********************************************
                * UNRELAXED MP2 DENSITY POPULATION ANALYSIS *
                *********************************************

------------------------------------------------------------------------------
                           ORCA POPULATION ANALYSIS
------------------------------------------------------------------------------
Input electron density              ... aiida.pmp2ur
BaseName (.gbw .S,...)              ... aiida

                    ********************************
                    * MULLIKEN POPULATION ANALYSIS *
                    ********************************

-----------------------
MULLIKEN ATOMIC CHARGES
-----------------------
   0 C :   -0.252706
   1 C :    0.187718
   2 O :   -0.332700
   3 H :    0.119069
   4 H :    0.097832
   5 H :    0.097832
   6 H :    0.082956
Sum of atomic charges:    0.0000000

--------------------------------
MULLIKEN REDUCED ORBITAL CHARGES
--------------------------------
  0 C s       :     3.232850  s :     3.232850
      pz      :     0.981141  p :     2.927932
      px      :     0.903071
      py      :     1.043720
      dz2     :     0.017256  d :     0.083895
      dxz     :     0.012665
      dyz     :     0.015523
      dx2y2   :     0.023078
      dxy     :     0.015371
      f0      :     0.000664  f :     0.008030
      f+1     :     0.001317
      f-1     :     0.001643
      f+2     :     0.000787
      f-2     :     0.000484
      f+3     :     0.001933
      f-3     :     0.001203
  1 C s       :     3.228154  s :     3.228154
      pz      :     0.644701  p :     2.366498
      px      :     0.873030
      py      :     0.848767
      dz2     :     0.013715  d :     0.198297
      dxz     :     0.032170
      dyz     :     0.030359
      dx2y2   :     0.076807
      dxy     :     0.045245
      f0      :     0.002085  f :     0.019333
      f+1     :     0.001159
      f-1     :     0.000900
      f+2     :     0.001342
      f-2     :     0.002652
      f+3     :     0.004857
      f-3     :     0.006338
  2 O s       :     3.759308  s :     3.759308
      pz      :     1.307216  p :     4.507506
      px      :     1.676754
      py      :     1.523536
      dz2     :     0.008224  d :     0.060953
      dxz     :     0.009873
      dyz     :     0.013534
      dx2y2   :     0.012431
      dxy     :     0.016891
      f0      :     0.000514  f :     0.004933
      f+1     :     0.000467
      f-1     :     0.000554
      f+2     :     0.000427
      f-2     :     0.000847
      f+3     :     0.001165
      f-3     :     0.000959
  3 H s       :     0.848826  s :     0.848826
      pz      :     0.009477  p :     0.029277
      px      :     0.008330
      py      :     0.011471
      dz2     :     0.000294  d :     0.002828
      dxz     :     0.000129
      dyz     :     0.000741
      dx2y2   :     0.000773
      dxy     :     0.000891
  4 H s       :     0.865995  s :     0.865995
      pz      :     0.010002  p :     0.033266
      px      :     0.013061
      py      :     0.010204
      dz2     :     0.000746  d :     0.002906
      dxz     :     0.000759
      dyz     :     0.000652
      dx2y2   :     0.000423
      dxy     :     0.000326
  5 H s       :     0.865995  s :     0.865995
      pz      :     0.010002  p :     0.033266
      px      :     0.013061
      py      :     0.010204
      dz2     :     0.000746  d :     0.002906
      dxz     :     0.000759
      dyz     :     0.000652
      dx2y2   :     0.000423
      dxy     :     0.000326
  6 H s       :     0.890699  s :     0.890699
      pz      :     0.005827  p :     0.023484
      px      :     0.010336
      py      :     0.007321
      dz2     :     0.000272  d :     0.002861
      dxz     :     0.000138
      dyz     :     0.000471
      dx2y2   :     0.000845
      dxy     :     0.001135


                     *******************************
                     * LOEWDIN POPULATION ANALYSIS *
                     *******************************

----------------------
LOEWDIN ATOMIC CHARGES
----------------------
   0 C :    0.102357
   1 C :   -0.140588
   2 O :    0.139649
   3 H :   -0.014877
   4 H :   -0.018569
   5 H :   -0.018569
   6 H :   -0.049404

-------------------------------
LOEWDIN REDUCED ORBITAL CHARGES
-------------------------------
  0 C s       :     2.666191  s :     2.666191
      pz      :     0.970225  p :     2.893273
      px      :     0.941216
      py      :     0.981832
      dz2     :     0.059083  d :     0.304627
      dxz     :     0.050994
      dyz     :     0.047699
      dx2y2   :     0.084921
      dxy     :     0.061929
      f0      :     0.001964  f :     0.033552
      f+1     :     0.005842
      f-1     :     0.005758
      f+2     :     0.002723
      f-2     :     0.003892
      f+3     :     0.007193
      f-3     :     0.006181
  1 C s       :     2.769218  s :     2.769218
      pz      :     0.620462  p :     2.576078
      px      :     0.979283
      py      :     0.976333
      dz2     :     0.046037  d :     0.691152
      dxz     :     0.091776
      dyz     :     0.063544
      dx2y2   :     0.285088
      dxy     :     0.204708
      f0      :     0.006705  f :     0.104139
      f+1     :     0.006064
      f-1     :     0.007707
      f+2     :     0.006052
      f-2     :     0.013427
      f+3     :     0.021600
      f-3     :     0.042583
  2 O s       :     3.389375  s :     3.389375
      pz      :     1.225218  p :     4.367780
      px      :     1.603024
      py      :     1.539539
      dz2     :     0.012686  d :     0.095145
      dxz     :     0.009823
      dyz     :     0.013454
      dx2y2   :     0.027760
      dxy     :     0.031422
      f0      :     0.000664  f :     0.008051
      f+1     :     0.000711
      f-1     :     0.000885
      f+2     :     0.000439
      f-2     :     0.000968
      f+3     :     0.002018
      f-3     :     0.002367
  3 H s       :     0.830661  s :     0.830661
      pz      :     0.039141  p :     0.154739
      px      :     0.040318
      py      :     0.075280
      dz2     :     0.002624  d :     0.029477
      dxz     :     0.000661
      dyz     :     0.008834
      dx2y2   :     0.008176
      dxy     :     0.009181
  4 H s       :     0.828380  s :     0.828380
      pz      :     0.064299  p :     0.160601
      px      :     0.047058
      py      :     0.049245
      dz2     :     0.009158  d :     0.029587
      dxz     :     0.006774
      dyz     :     0.007022
      dx2y2   :     0.003842
      dxy     :     0.002792
  5 H s       :     0.828380  s :     0.828380
      pz      :     0.064299  p :     0.160601
      px      :     0.047058
      py      :     0.049245
      dz2     :     0.009158  d :     0.029587
      dxz     :     0.006774
      dyz     :     0.007022
      dx2y2   :     0.003842
      dxy     :     0.002792
  6 H s       :     0.878630  s :     0.878630
      pz      :     0.023354  p :     0.145021
      px      :     0.040791
      py      :     0.080876
      dz2     :     0.002841  d :     0.025753
      dxz     :     0.000622
      dyz     :     0.004791
      dx2y2   :     0.008663
      dxy     :     0.008836


                      *****************************
                      * MAYER POPULATION ANALYSIS *
                      *****************************

  NA   - Mulliken gross atomic population
  ZA   - Total nuclear charge
  QA   - Mulliken gross atomic charge
  VA   - Mayer's total valence
  BVA  - Mayer's bonded valence
  FA   - Mayer's free valence

  ATOM       NA         ZA         QA         VA         BVA        FA
  0 C      6.2527     6.0000    -0.2527     3.8838     3.5985     0.2852
  1 C      5.8123     6.0000     0.1877     4.0651     3.7265     0.3386
  2 O      8.3327     8.0000    -0.3327     2.3949     1.9375     0.4574
  3 H      0.8809     1.0000     0.1191     1.0042     0.9494     0.0548
  4 H      0.9022     1.0000     0.0978     0.9967     0.9403     0.0564
  5 H      0.9022     1.0000     0.0978     0.9967     0.9403     0.0564
  6 H      0.9170     1.0000     0.0830     0.9768     0.9194     0.0574

  Mayer bond orders larger than 0.100000
B(  0-C ,  1-C ) :   0.8801 B(  0-C ,  3-H ) :   0.9282 B(  0-C ,  4-H ) :   0.9223 
B(  0-C ,  5-H ) :   0.9223 B(  1-C ,  2-O ) :   1.9188 B(  1-C ,  6-H ) :   0.9174 



                *******************************************
                * RELAXED MP2 DENSITY POPULATION ANALYSIS *
                *******************************************

------------------------------------------------------------------------------
                           ORCA POPULATION ANALYSIS
------------------------------------------------------------------------------
Input electron density              ... aiida.pmp2re
BaseName (.gbw .S,...)              ... aiida

                    ********************************
                    * MULLIKEN POPULATION ANALYSIS *
                    ********************************

-----------------------
MULLIKEN ATOMIC CHARGES
-----------------------
   0 C :   -0.334337
   1 C :    0.105741
   2 O :   -0.236253
   3 H :    0.134251
   4 H :    0.124452
   5 H :    0.124452
   6 H :    0.081693
Sum of atomic charges:    0.0000000

--------------------------------
MULLIKEN REDUCED ORBITAL CHARGES
--------------------------------
  0 C s       :     3.249935  s :     3.249935
      pz      :     1.007902  p :     3.001102
      px      :     0.927996
      py      :     1.065204
      dz2     :     0.015188  d :     0.075468
      dxz     :     0.013045
      dyz     :     0.014121
      dx2y2   :     0.018098
      dxy     :     0.015016
      f0      :     0.000694  f :     0.007832
      f+1     :     0.001244
      f-1     :     0.001545
      f+2     :     0.000838
      f-2     :     0.000508
      f+3     :     0.001774
      f-3     :     0.001229
  1 C s       :     3.247158  s :     3.247158
      pz      :     0.720774  p :     2.453426
      px      :     0.880464
      py      :     0.852189
      dz2     :     0.014133  d :     0.176202
      dxz     :     0.028288
      dyz     :     0.023006
      dx2y2   :     0.068075
      dxy     :     0.042700
      f0      :     0.001766  f :     0.017472
      f+1     :     0.001092
      f-1     :     0.000869
      f+2     :     0.001267
      f-2     :     0.002212
      f+3     :     0.004429
      f-3     :     0.005838
  2 O s       :     3.746479  s :     3.746479
      pz      :     1.250211  p :     4.425904
      px      :     1.655579
      py      :     1.520114
      dz2     :     0.008227  d :     0.059000
      dxz     :     0.009288
      dyz     :     0.012438
      dx2y2   :     0.013149
      dxy     :     0.015898
      f0      :     0.000483  f :     0.004870
      f+1     :     0.000458
      f-1     :     0.000537
      f+2     :     0.000427
      f-2     :     0.000846
      f+3     :     0.001130
      f-3     :     0.000989
  3 H s       :     0.834836  s :     0.834836
      pz      :     0.010196  p :     0.028127
      px      :     0.008691
      py      :     0.009240
      dz2     :     0.000270  d :     0.002785
      dxz     :     0.000135
      dyz     :     0.000750
      dx2y2   :     0.000756
      dxy     :     0.000874
  4 H s       :     0.840342  s :     0.840342
      pz      :     0.008883  p :     0.032322
      px      :     0.013043
      py      :     0.010397
      dz2     :     0.000762  d :     0.002884
      dxz     :     0.000735
      dyz     :     0.000632
      dx2y2   :     0.000426
      dxy     :     0.000328
  5 H s       :     0.840342  s :     0.840342
      pz      :     0.008883  p :     0.032322
      px      :     0.013043
      py      :     0.010397
      dz2     :     0.000762  d :     0.002884
      dxz     :     0.000735
      dyz     :     0.000632
      dx2y2   :     0.000426
      dxy     :     0.000328
  6 H s       :     0.894165  s :     0.894165
      pz      :     0.006725  p :     0.021261
      px      :     0.010219
      py      :     0.004317
      dz2     :     0.000262  d :     0.002881
      dxz     :     0.000147
      dyz     :     0.000520
      dx2y2   :     0.000845
      dxy     :     0.001106


                     *******************************
                     * LOEWDIN POPULATION ANALYSIS *
                     *******************************

----------------------
LOEWDIN ATOMIC CHARGES
----------------------
   0 C :    0.080943
   1 C :   -0.178574
   2 O :    0.199109
   3 H :   -0.014588
   4 H :   -0.014616
   5 H :   -0.014616
   6 H :   -0.057657

-------------------------------
LOEWDIN REDUCED ORBITAL CHARGES
-------------------------------
  0 C s       :     2.670977  s :     2.670977
      pz      :     0.978515  p :     2.922676
      px      :     0.953795
      py      :     0.990366
      dz2     :     0.055068  d :     0.291845
      dxz     :     0.053068
      dyz     :     0.043762
      dx2y2   :     0.078790
      dxy     :     0.061157
      f0      :     0.002158  f :     0.033560
      f+1     :     0.005736
      f-1     :     0.005643
      f+2     :     0.003059
      f-2     :     0.003854
      f+3     :     0.006891
      f-3     :     0.006218
  1 C s       :     2.773158  s :     2.773158
      pz      :     0.676234  p :     2.625786
      px      :     0.975402
      py      :     0.974150
      dz2     :     0.045892  d :     0.679835
      dxz     :     0.087187
      dyz     :     0.052935
      dx2y2   :     0.288621
      dxy     :     0.205199
      f0      :     0.005807  f :     0.099795
      f+1     :     0.006020
      f-1     :     0.007814
      f+2     :     0.006011
      f-2     :     0.012427
      f+3     :     0.021164
      f-3     :     0.040552
  2 O s       :     3.390953  s :     3.390953
      pz      :     1.183604  p :     4.306596
      px      :     1.588760
      py      :     1.534232
      dz2     :     0.012723  d :     0.095175
      dxz     :     0.009960
      dyz     :     0.013670
      dx2y2   :     0.028320
      dxy     :     0.030503
      f0      :     0.000702  f :     0.008166
      f+1     :     0.000710
      f-1     :     0.000878
      f+2     :     0.000447
      f-2     :     0.001058
      f+3     :     0.001997
      f-3     :     0.002374
  3 H s       :     0.826172  s :     0.826172
      pz      :     0.040595  p :     0.158276
      px      :     0.042574
      py      :     0.075106
      dz2     :     0.002693  d :     0.030140
      dxz     :     0.000702
      dyz     :     0.008928
      dx2y2   :     0.008347
      dxy     :     0.009469
  4 H s       :     0.819919  s :     0.819919
      pz      :     0.064604  p :     0.164463
      px      :     0.049443
      py      :     0.050415
      dz2     :     0.009293  d :     0.030234
      dxz     :     0.007011
      dyz     :     0.007207
      dx2y2   :     0.003816
      dxy     :     0.002907
  5 H s       :     0.819919  s :     0.819919
      pz      :     0.064604  p :     0.164463
      px      :     0.049443
      py      :     0.050415
      dz2     :     0.009293  d :     0.030234
      dxz     :     0.007011
      dyz     :     0.007207
      dx2y2   :     0.003816
      dxy     :     0.002907
  6 H s       :     0.879312  s :     0.879312
      pz      :     0.026798  p :     0.151436
      px      :     0.041394
      py      :     0.083243
      dz2     :     0.002920  d :     0.026909
      dxz     :     0.000765
      dyz     :     0.005509
      dx2y2   :     0.008902
      dxy     :     0.008812


                      *****************************
                      * MAYER POPULATION ANALYSIS *
                      *****************************

  NA   - Mulliken gross atomic population
  ZA   - Total nuclear charge
  QA   - Mulliken gross atomic charge
  VA   - Mayer's total valence
  BVA  - Mayer's bonded valence
  FA   - Mayer's free valence

  ATOM       NA         ZA         QA         VA         BVA        FA
  0 C      6.3343     6.0000    -0.3343     3.8424     3.5581     0.2843
  1 C      5.8943     6.0000     0.1057     4.1424     3.8155     0.3269
  2 O      8.2363     8.0000    -0.2363     2.5156     2.0734     0.4421
  3 H      0.8657     1.0000     0.1343     1.0062     0.9528     0.0535
  4 H      0.8755     1.0000     0.1245     0.9930     0.9379     0.0551
  5 H      0.8755     1.0000     0.1245     0.9930     0.9379     0.0551
  6 H      0.9183     1.0000     0.0817     0.9684     0.9132     0.0552

  Mayer bond orders larger than 0.100000
B(  0-C ,  1-C ) :   0.8794 B(  0-C ,  3-H ) :   0.9175 B(  0-C ,  4-H ) :   0.9110 
B(  0-C ,  5-H ) :   0.9110 B(  1-C ,  2-O ) :   2.0286 B(  1-C ,  6-H ) :   0.8907 



----------------------------------
MP2 DERIVATIVE INTEGRAL GENERATION
----------------------------------


Input Wavefunction Amplitudes       ... aiida.mp2tsaa.tmp
Input Correlated Electron Density   ... aiida.pmp2re
Input Energy Weighted Density       ... aiida.wmp2.tmp
Input SCF Electron Density          ... aiida.scfp

One-Electron Terms    ...
                        ... One-Electron Terms done
Prescreening matrices              ... done

Batch handling in the gradient evaluation:
Memory available                      ... 3000.0 MB
Memory per occupied orbital in Q2     ...    2.0 MB
Memory per occupied orbital in Q3     ...    0.1 MB
Total memory requirement per |i>      ...    2.0 MB
Max. Number of orbitals possible      ...   1495
Number of orbitals treated per batch  ...     12
Number of batches to be done          ...      1
Batch   0: i=    0 ...    11

---------------------------------------
MP2 TOTAL ENERGY:     -153.585522337 Eh
---------------------------------------

The final MP2 gradient
  0:  -0.00052759  -0.00521906   0.00000001
  1:  -0.00917961  -0.02051428  -0.00000001
  2:   0.01239550   0.02205840   0.00000000
  3:  -0.00285281   0.00628108  -0.00000000
  4:   0.00013159   0.00049288   0.00539132
  5:   0.00013159   0.00049287  -0.00539132
  6:  -0.00009868  -0.00359189   0.00000000

-----------------------------------
NORM OF THE MP2 GRADIENT:  0.035944
-----------------------------------

Maximum memory used throughout the entire MP2-calculation: 141.3 MB

-------------------------   --------------------
FINAL SINGLE POINT ENERGY      -153.585522337267
-------------------------   --------------------

------------------------------------------------------------------------------
                         ORCA GEOMETRY RELAXATION STEP
------------------------------------------------------------------------------

Reading the OPT-File                    .... done
Getting information on internals        .... done
Copying old internal coords+grads       .... done
Making the new internal coordinates     .... (new redundants).... done
Validating the new internal coordinates .... (new redundants).... done
Calculating the B-matrix                .... done
Calculating the G,G- and P matrices     .... done
Transforming gradient to internals      .... done
Projecting the internal gradient        .... done
Number of atoms                         ....   7
Number of internal coordinates          ....  21
Current Energy                          ....  -153.585522337 Eh
Current gradient norm                   ....     0.035944322 Eh/bohr
Maximum allowed component of the step   ....  0.300
Current trust radius                    ....  0.300
Evaluating the initial hessian          ....  (Almloef) done
Projecting the Hessian                  .... done
Forming the augmented Hessian           .... done
Diagonalizing the augmented Hessian     .... done
Last element of RFO vector              ....  0.998842230
Lowest eigenvalues of augmented Hessian:
 -0.001099108  0.013094490  0.013094490  0.138388560  0.140211235
Length of the computed step             ....  0.048161879
The final length of the internal step   ....  0.048161879
Converting the step to cartesian space:
 Initial RMS(Int)=    0.0105097836
Transforming coordinates:
 Iter   0:  RMS(Cart)=    0.0099880906 RMS(Int)=    0.0105194658
 Iter   1:  RMS(Cart)=    0.0000601582 RMS(Int)=    0.0000560710
 Iter   2:  RMS(Cart)=    0.0000005989 RMS(Int)=    0.0000005348
 Iter   3:  RMS(Cart)=    0.0000000045 RMS(Int)=    0.0000000051
done
Storing new coordinates                 .... done

                                .--------------------.
          ----------------------|Geometry convergence|-------------------------
          Item                value                   Tolerance       Converged
          ---------------------------------------------------------------------
          RMS gradient        0.0061195795            0.0001000000      NO
          MAX gradient        0.0251159276            0.0003000000      NO
          RMS step            0.0105097836            0.0020000000      NO
          MAX step            0.0245930160            0.0040000000      NO
          ........................................................
          Max(Bonds)      0.0130      Max(Angles)    1.08
          Max(Dihed)        0.52      Max(Improp)    0.00
          ---------------------------------------------------------------------

The optimization has not yet converged - more geometry cycles are needed


    ---------------------------------------------------------------------------
                         Redundant Internal Coordinates
                            (Angstroem and degrees)

        Definition                    Value    dE/dq     Step     New-Value
    ----------------------------------------------------------------------------
     1. B(C   1,C   0)                1.4976  0.003215 -0.0040    1.4935   
     2. B(O   2,C   1)                1.2265  0.025116 -0.0130    1.2135   
     3. B(H   3,C   0)                1.0928  0.006844 -0.0101    1.0826   
     4. B(H   4,C   0)                1.0924  0.004136 -0.0061    1.0863   
     5. B(H   5,C   0)                1.0924  0.004136 -0.0061    1.0863   
     6. B(H   6,C   1)                1.1031  0.003274 -0.0050    1.0980   
     7. A(H   3,C   0,H   4)          109.44 -0.000692    0.32    109.76   
     8. A(C   1,C   0,H   4)          109.10 -0.001710    0.23    109.33   
     9. A(C   1,C   0,H   3)          110.07  0.001098   -0.03    110.04   
    10. A(C   1,C   0,H   5)          109.10 -0.001710    0.23    109.33   
    11. A(H   3,C   0,H   5)          109.44 -0.000692    0.32    109.76   
    12. A(H   4,C   0,H   5)          109.68  0.003727   -1.08    108.60   
    13. A(O   2,C   1,H   6)          120.95  0.003399   -0.48    120.47   
    14. A(C   0,C   1,H   6)          115.60  0.000314   -0.02    115.58   
    15. A(C   0,C   1,O   2)          123.45 -0.003712    0.51    123.95   
    16. D(O   2,C   1,C   0,H   4)   -120.10  0.001243   -0.52   -120.62   
    17. D(O   2,C   1,C   0,H   5)    120.10 -0.001243    0.52    120.62   
    18. D(H   6,C   1,C   0,H   3)   -180.00 -0.000000    0.00   -180.00   
    19. D(H   6,C   1,C   0,H   4)     59.90  0.001243   -0.52     59.38   
    20. D(H   6,C   1,C   0,H   5)    -59.90 -0.001243    0.52    -59.38   
    21. D(O   2,C   1,C   0,H   3)      0.00  0.000000   -0.00      0.00   
    ----------------------------------------------------------------------------

         *************************************************************
         *                GEOMETRY OPTIMIZATION CYCLE   2            *
         *************************************************************
---------------------------------
CARTESIAN COORDINATES (ANGSTROEM)
---------------------------------
  C      5.384865    6.095352    5.893111
  C      6.876629    6.022579    5.893111
  O      7.602666    6.994952    5.893111
  H      5.063858    7.129315    5.893111
  H      5.000258    5.591400    6.775277
  H      5.000258    5.591400    5.010945
  H      7.301823    5.010219    5.893111

----------------------------
CARTESIAN COORDINATES (A.U.)
----------------------------
  NO LB      ZA    FRAG     MASS         X           Y           Z
   0 C     6.0000    0    12.011   10.175920   11.518546   11.136366
   1 C     6.0000    0    12.011   12.994946   11.381026   11.136366
   2 O     8.0000    0    15.999   14.366957   13.218544   11.136366
   3 H     1.0000    0     1.008    9.569305   13.472453   11.136365
   4 H     1.0000    0     1.008    9.449118   10.566215   12.803418
   5 H     1.0000    0     1.008    9.449118   10.566214    9.469314
   6 H     1.0000    0     1.008   13.798446    9.467942   11.136366

--------------------------------
INTERNAL COORDINATES (ANGSTROEM)
--------------------------------
 C      0   0   0     0.000000000000     0.00000000     0.00000000
 C      1   0   0     1.493538588384     0.00000000     0.00000000
 O      2   1   0     1.213523232584   123.95456379     0.00000000
 H      1   2   3     1.082646881822   110.04043959     0.00000000
 H      1   2   3     1.086327503039   109.33064088   239.38162289
 H      1   2   3     1.086327501926   109.33064255   120.61839527
 H      2   1   3     1.098026775123   115.57537286   180.00000622

---------------------------
INTERNAL COORDINATES (A.U.)
---------------------------
 C      0   0   0     0.000000000000     0.00000000     0.00000000
 C      1   0   0     2.822378902488     0.00000000     0.00000000
 O      2   1   0     2.293226566734   123.95456379     0.00000000
 H      1   2   3     2.045906106388   110.04043959     0.00000000
 H      1   2   3     2.052861472489   109.33064088   239.38162289
 H      1   2   3     2.052861470387   109.33064255   120.61839527
 H      2   1   3     2.074969892696   115.57537286   180.00000622



           ************************************************************
           *        Program running with 4 parallel MPI-processes     *
           *              working on a common directory               *
           ************************************************************
------------------------------------------------------------------------------
                   ___                                                        
                  /   \      - P O W E R E D   B Y -                         
                 /     \                                                     
                 |  |  |   _    _      __       _____    __    __             
                 |  |  |  | |  | |    /  \     |  _  \  |  |  /  |          
                  \  \/   | |  | |   /    \    | | | |  |  | /  /          
                 / \  \   | |__| |  /  /\  \   | |_| |  |  |/  /          
                |  |  |   |  __  | /  /__\  \  |    /   |      \           
                |  |  |   | |  | | |   __   |  |    \   |  |\   \          
                \     /   | |  | | |  |  |  |  | |\  \  |  | \   \       
                 \___/    |_|  |_| |__|  |__|  |_| \__\ |__|  \__/        
                                                                              
                      - O R C A' S   B I G   F R I E N D -                    
                                      &                                       
                       - I N T E G R A L  F E E D E R -                       
                                                                              
 v1 FN, 2020, v2 2021                                                         
------------------------------------------------------------------------------


Reading SHARK input file aiida.SHARKINP.tmp ... ok
----------------------
SHARK INTEGRAL PACKAGE
----------------------

Number of atoms                             ...      7
Number of basis functions                   ...    164
Number of shells                            ...     72
Maximum angular momentum                    ...      3
Integral batch strategy                     ... SHARK/LIBINT Hybrid
RI-J (if used) integral strategy            ... SPLIT-RIJ (Revised 2003 algorithm where possible)
Printlevel                                  ...      1
Contraction scheme used                     ... PARTIAL GENERAL contraction
Coulomb Range Separation                    ... NOT USED
Exchange Range Separation                   ... NOT USED
Finite Nucleus Model                        ... NOT USED
Auxiliary Coulomb fitting basis             ... NOT available
Auxiliary J/K fitting basis                 ... NOT available
Auxiliary Correlation fitting basis         ... AVAILABLE
   # of basis functions in Aux-C            ...    363
   # of shells in Aux-C                     ...    109
[...]
   (+) Dipole Moment


------------------------------------------------------------------------------
                       ORCA ELECTRIC PROPERTIES CALCULATION
------------------------------------------------------------------------------

Dipole Moment Calculation                       ... on
Quadrupole Moment Calculation                   ... off
Polarizability Calculation                      ... off
GBWName                                         ... aiida.gbw
Electron density                                ... aiida.scfp
The origin for moment calculation is the CENTER OF MASS  = (12.508752, 12.056086 11.136368)

-------------
DIPOLE MOMENT
-------------
                                X             Y             Z
Electronic contribution:      2.95877       1.17996       0.00002
Nuclear contribution   :     -3.85237      -2.06019      -0.00001
                        -----------------------------------------
Total Dipole Moment    :     -0.89360      -0.88023       0.00001
                        -----------------------------------------
Magnitude (a.u.)       :      1.25432
Magnitude (Debye)      :      3.18824



--------------------
Rotational spectrum 
--------------------
 
Rotational constants in cm-1:     1.920611     0.341354     0.306034 
Rotational constants in MHz : 57578.467006 10233.547290  9174.674717 

 Dipole components along the rotational axes: 
x,y,z [a.u.] :    -1.143326     0.515881    -0.000001 
x,y,z [Debye]:    -2.906104     1.311265    -0.000002 

 

                         *** MP2 UNRELAXED DENSITY ***

------------------------------------------------------------------------------
                       ORCA ELECTRIC PROPERTIES CALCULATION
------------------------------------------------------------------------------

Dipole Moment Calculation                       ... on
Quadrupole Moment Calculation                   ... off
Polarizability Calculation                      ... off
GBWName                                         ... aiida.gbw
Electron density                                ... aiida.pmp2ur
The origin for moment calculation is the CENTER OF MASS  = (12.508752, 12.056086 11.136368)

-------------
DIPOLE MOMENT
-------------
                                X             Y             Z
Electronic contribution:      2.98942       1.22153       0.00002
Nuclear contribution   :     -3.85237      -2.06019      -0.00001
                        -----------------------------------------
Total Dipole Moment    :     -0.86295      -0.83865       0.00001
                        -----------------------------------------
Magnitude (a.u.)       :      1.20334
Magnitude (Debye)      :      3.05865



--------------------
Rotational spectrum 
--------------------
 
Rotational constants in cm-1:     1.920611     0.341354     0.306034 
Rotational constants in MHz : 57578.467006 10233.547290  9174.674717 

 Dipole components along the rotational axes: 
x,y,z [a.u.] :    -1.100165     0.487507    -0.000001 
x,y,z [Debye]:    -2.796398     1.239145    -0.000004 

 

                           *** MP2 RELAXED DENSITY ***

------------------------------------------------------------------------------
                       ORCA ELECTRIC PROPERTIES CALCULATION
------------------------------------------------------------------------------

Dipole Moment Calculation                       ... on
Quadrupole Moment Calculation                   ... off
Polarizability Calculation                      ... off
GBWName                                         ... aiida.gbw
Electron density                                ... aiida.pmp2re
The origin for moment calculation is the CENTER OF MASS  = (12.508752, 12.056086 11.136368)

-------------
DIPOLE MOMENT
-------------
                                X             Y             Z
Electronic contribution:      3.09938       1.35082       0.00002
Nuclear contribution   :     -3.85237      -2.06019      -0.00001
                        -----------------------------------------
Total Dipole Moment    :     -0.75299      -0.70937       0.00000
                        -----------------------------------------
Magnitude (a.u.)       :      1.03451
Magnitude (Debye)      :      2.62951



--------------------
Rotational spectrum 
--------------------
 
Rotational constants in cm-1:     1.920611     0.341354     0.306034 
Rotational constants in MHz : 57578.467006 10233.547290  9174.674717 

 Dipole components along the rotational axes: 
x,y,z [a.u.] :    -0.952208     0.404358    -0.000002 
x,y,z [Debye]:    -2.420321     1.027795    -0.000005 

 
------------------------------------------------------------------------------
                         ORCA MP2 H E S S I A N CALCULATION
------------------------------------------------------------------------------

Calculating analytic MP2 second derivatives ... (>aiida.last_mp2) done

-----------------------
VIBRATIONAL FREQUENCIES
-----------------------

Scaling factor for frequencies =  1.000000000  (already applied!)

   0:         0.00 cm**-1
   1:         0.00 cm**-1
   2:         0.00 cm**-1
   3:         0.00 cm**-1
   4:         0.00 cm**-1
   5:         0.00 cm**-1
   6:       170.67 cm**-1
   7:       510.72 cm**-1
   8:       792.82 cm**-1
   9:       912.59 cm**-1
  10:      1149.76 cm**-1
  11:      1151.25 cm**-1
  12:      1394.77 cm**-1
  13:      1452.57 cm**-1
  14:      1486.77 cm**-1
  15:      1500.51 cm**-1
  16:      1794.14 cm**-1
  17:      2970.31 cm**-1
  18:      3093.04 cm**-1
  19:      3159.96 cm**-1
  20:      3207.61 cm**-1


------------
NORMAL MODES
------------

These modes are the Cartesian displacements weighted by the diagonal matrix
M(i,i)=1/sqrt(m[i]) where m[i] is the mass of the displaced atom
Thus, these vectors are normalized but *not* orthogonal

                  0          1          2          3          4          5    
      0       0.000000   0.000000   0.000000   0.000000   0.000000   0.000000
      1       0.000000   0.000000   0.000000   0.000000   0.000000   0.000000
      2       0.000000   0.000000   0.000000   0.000000   0.000000   0.000000
      3       0.000000   0.000000   0.000000   0.000000   0.000000   0.000000
      4       0.000000   0.000000   0.000000   0.000000   0.000000   0.000000
      5       0.000000   0.000000   0.000000   0.000000   0.000000   0.000000
      6       0.000000   0.000000   0.000000   0.000000   0.000000   0.000000
      7       0.000000   0.000000   0.000000   0.000000   0.000000   0.000000
      8       0.000000   0.000000   0.000000   0.000000   0.000000   0.000000
      9       0.000000   0.000000   0.000000   0.000000   0.000000   0.000000
     10       0.000000   0.000000   0.000000   0.000000   0.000000   0.000000
     11       0.000000   0.000000   0.000000   0.000000   0.000000   0.000000
     12       0.000000   0.000000   0.000000   0.000000   0.000000   0.000000
     13       0.000000   0.000000   0.000000   0.000000   0.000000   0.000000
     14       0.000000   0.000000   0.000000   0.000000   0.000000   0.000000
     15       0.000000   0.000000   0.000000   0.000000   0.000000   0.000000
     16       0.000000   0.000000   0.000000   0.000000   0.000000   0.000000
     17       0.000000   0.000000   0.000000   0.000000   0.000000   0.000000
     18       0.000000   0.000000   0.000000   0.000000   0.000000   0.000000
     19       0.000000   0.000000   0.000000   0.000000   0.000000   0.000000
     20       0.000000   0.000000   0.000000   0.000000   0.000000   0.000000
                  6          7          8          9         10         11    
      0       0.000000   0.145123  -0.000001   0.218258  -0.091745  -0.000093
      1      -0.000000   0.074582   0.000000   0.104264   0.171159   0.000171
      2       0.003693  -0.000001   0.074335   0.000001  -0.000167   0.136874
      3       0.000000   0.082527   0.000001  -0.130503   0.198650   0.000198
      4      -0.000002  -0.189036   0.000000   0.030138  -0.146589  -0.000148
      5      -0.109651   0.000004   0.059727  -0.000003   0.000263  -0.217089
      6      -0.000000  -0.217433   0.000001  -0.095468  -0.047456  -0.000046
      7       0.000001   0.036541  -0.000000  -0.063369   0.021190   0.000022
      8       0.082790  -0.000002  -0.027266   0.000001  -0.000056   0.046305
      9       0.000007   0.710047  -0.000004  -0.251773  -0.843832  -0.000841
     10       0.000001   0.256006  -0.000002  -0.060352  -0.074530  -0.000074
     11      -0.431793  -0.000002  -0.283558  -0.000004   0.000347  -0.291815
     12       0.147804  -0.123532  -0.498220   0.544617   0.068363  -0.388329
     13       0.456980   0.312955   0.043597  -0.227842  -0.196498  -0.077023
     14       0.344752   0.017286  -0.135217  -0.048471  -0.128978  -0.101793
     15      -0.147813  -0.123516   0.498227   0.544615   0.067417   0.388463
     16      -0.456977   0.312954  -0.043602  -0.227843  -0.196686   0.076631
     17       0.344751  -0.017297  -0.135210   0.048478   0.129229  -0.101529
     18       0.000001   0.275493  -0.000007  -0.367846   0.187423   0.000196
     19       0.000002  -0.098091   0.000006  -0.079644  -0.161399  -0.000171
     20      -0.309197   0.000002  -0.610686   0.000001  -0.000860   0.716002
                 12         13         14         15         16         17    
      0      -0.161209  -0.029312  -0.015542   0.000001  -0.052146  -0.000041
      1       0.019466  -0.035070   0.048855  -0.000001  -0.032702   0.003856
      2      -0.000001  -0.000001  -0.000001  -0.051880  -0.000001  -0.000000
      3       0.020290   0.067358  -0.013285   0.000000   0.447873   0.036403
      4      -0.014008  -0.044873  -0.010361  -0.000000   0.486182  -0.074547
      5       0.000000   0.000001  -0.000000  -0.027950  -0.000008  -0.000001
      6      -0.001492   0.013026   0.019968  -0.000000  -0.263493  -0.001399
      7      -0.006745   0.080305   0.024879  -0.000000  -0.338067  -0.001065
      8       0.000000  -0.000000  -0.000000   0.002842   0.000006  -0.000000
      9       0.422837   0.101328   0.405557  -0.000015   0.260883   0.002235
     10       0.200221   0.009248   0.167867  -0.000004   0.090075  -0.014798
     11       0.000002  -0.000002   0.000021   0.717881   0.000002  -0.000000
     12       0.542769   0.048397  -0.148996  -0.300928  -0.168235  -0.005201
     13      -0.104136   0.062359  -0.493082   0.379425  -0.088354  -0.017918
     14       0.226826   0.093499  -0.363959   0.055366  -0.087600   0.031665
     15       0.542769   0.048397  -0.148984   0.300936  -0.168234  -0.005200
     16      -0.104137   0.062359  -0.493100  -0.379399  -0.088356  -0.017919
     17      -0.226818  -0.093499   0.363960   0.055352   0.087598  -0.031665
     18       0.194448  -0.858209  -0.081021   0.000002  -0.457599  -0.402901
     19       0.050058  -0.455982  -0.035243  -0.000001   0.048928   0.909860
     20       0.000000   0.000006   0.000003   0.077523   0.000001   0.000013
                 18         19         20    
      0      -0.048822  -0.000001   0.005571
      1      -0.014130   0.000000  -0.092853
      2      -0.000001   0.090855   0.000000
      3       0.002973  -0.000000   0.000090
      4      -0.003215  -0.000000  -0.004543
      5       0.000000   0.001050  -0.000000
      6       0.000125   0.000000   0.000317
      7       0.000381   0.000000   0.000810
      8      -0.000000   0.000198  -0.000000
      9       0.126343   0.000000  -0.273777
     10      -0.422147  -0.000001   0.856001
     11       0.000001   0.018643  -0.000002
     12       0.218271   0.258035   0.108645
     13       0.295996   0.342990   0.130086
     14      -0.515471  -0.558100  -0.249934
     15       0.218265  -0.258027   0.108642
     16       0.295999  -0.342990   0.130085
     17       0.515475  -0.558100   0.249934
     18      -0.018544   0.000000  -0.016002
     19       0.030786  -0.000000   0.031507
     20       0.000000  -0.000705   0.000001


-----------
IR SPECTRUM
-----------

 Mode   freq       eps      Int      T**2         TX        TY        TZ
       cm**-1   L/(mol*cm) km/mol    a.u.
----------------------------------------------------------------------------
  6:    170.67   0.000166    0.84  0.000303  ( 0.000001  0.000002 -0.017401)
  7:    510.72   0.002580   13.04  0.001577  ( 0.036772 -0.014983  0.000000)
  8:    792.82   0.000207    1.04  0.000081  (-0.000000  0.000001 -0.009016)
  9:    912.59   0.001368    6.91  0.000468  (-0.021600  0.001115  0.000000)
 10:   1149.76   0.004276   21.61  0.001161  ( 0.032212 -0.011089  0.000002)
 11:   1151.25   0.000008    0.04  0.000002  ( 0.000035 -0.000013 -0.001495)
 12:   1394.77   0.004866   24.59  0.001089  ( 0.032906  0.002415  0.000000)
 13:   1452.57   0.001578    7.97  0.000339  ( 0.017057 -0.006933  0.000000)
 14:   1486.77   0.004104   20.74  0.000861  (-0.011334 -0.027072  0.000001)
 15:   1500.51   0.001941    9.81  0.000404  (-0.000000  0.000001  0.020092)
 16:   1794.14   0.023570  119.11  0.004100  ( 0.049433  0.040694  0.000000)
 17:   2970.31   0.022252  112.45  0.002338  ( 0.020524 -0.043779  0.000000)
 18:   3093.04   0.000345    1.74  0.000035  (-0.003488 -0.004758  0.000000)
 19:   3159.96   0.000820    4.15  0.000081  (-0.000000 -0.000000  0.009001)
 20:   3207.61   0.001015    5.13  0.000099  ( 0.004268 -0.008976  0.000000)

* The epsilon (eps) is given for a Dirac delta lineshape.
** The dipole moment derivative (T) already includes vibrational overlap.

The first frequency considered to be a vibration is 6
The total number of vibrations considered is 15


--------------------------
THERMOCHEMISTRY AT 298.15K
--------------------------

Temperature         ... 298.15 K
Pressure            ... 1.00 atm
Total Mass          ... 44.05 AMU

Throughout the following assumptions are being made:
  (1) The electronic state is orbitally nondegenerate
  (2) There are no thermally accessible electronically excited states
  (3) Hindered rotations indicated by low frequency modes are not
      treated as such but are treated as vibrations and this may
      cause some error
  (4) All equations used are the standard statistical mechanics
      equations for an ideal gas
  (5) All vibrations are strictly harmonic

freq.     170.67  E(vib)   ...       0.38 
freq.     510.72  E(vib)   ...       0.14 
freq.     792.82  E(vib)   ...       0.05 
freq.     912.59  E(vib)   ...       0.03 
freq.    1149.76  E(vib)   ...       0.01 
freq.    1151.25  E(vib)   ...       0.01 
freq.    1394.77  E(vib)   ...       0.00 
freq.    1452.57  E(vib)   ...       0.00 
freq.    1486.77  E(vib)   ...       0.00 
freq.    1500.51  E(vib)   ...       0.00 
freq.    1794.14  E(vib)   ...       0.00 
freq.    2970.31  E(vib)   ...       0.00 
freq.    3093.04  E(vib)   ...       0.00 
freq.    3159.96  E(vib)   ...       0.00 
freq.    3207.61  E(vib)   ...       0.00 

------------
INNER ENERGY
------------

The inner energy is: U= E(el) + E(ZPE) + E(vib) + E(rot) + E(trans)
    E(el)   - is the total energy from the electronic structure calculation
              = E(kin-el) + E(nuc-el) + E(el-el) + E(nuc-nuc)
    E(ZPE)  - the the zero temperature vibrational energy from the frequency calculation
    E(vib)  - the the finite temperature correction to E(ZPE) due to population
              of excited vibrational states
    E(rot)  - is the rotational thermal energy
    E(trans)- is the translational thermal energy

Summary of contributions to the inner energy U:
Electronic energy                ...   -153.58629301 Eh
Zero point energy                ...      0.05637896 Eh      35.38 kcal/mol
Thermal vibrational correction   ...      0.00102243 Eh       0.64 kcal/mol
Thermal rotational correction    ...      0.00141627 Eh       0.89 kcal/mol
Thermal translational correction ...      0.00141627 Eh       0.89 kcal/mol
-----------------------------------------------------------------------
Total thermal energy                   -153.52605908 Eh


Summary of corrections to the electronic energy:
(perhaps to be used in another calculation)
Total thermal correction                  0.00385497 Eh       2.42 kcal/mol
Non-thermal (ZPE) correction              0.05637896 Eh      35.38 kcal/mol
-----------------------------------------------------------------------
Total correction                          0.06023393 Eh      37.80 kcal/mol


--------
ENTHALPY
--------

The enthalpy is H = U + kB*T
                kB is Boltzmann's constant
Total free energy                 ...   -153.52605908 Eh 
Thermal Enthalpy correction       ...      0.00094421 Eh       0.59 kcal/mol
-----------------------------------------------------------------------
Total Enthalpy                    ...   -153.52511487 Eh


Note: Rotational entropy computed according to Herzberg 
Infrared and Raman Spectra, Chapter V,1, Van Nostrand Reinhold, 1945 
Point Group:  Cs, Symmetry Number:   1  
Rotational constants in cm-1:     1.920611     0.341354     0.306034 

Vibrational entropy computed according to the QRRHO of S. Grimme
Chem.Eur.J. 2012 18 9955


-------
ENTROPY
-------

The entropy contributions are T*S = T*(S(el)+S(vib)+S(rot)+S(trans))
     S(el)   - electronic entropy
     S(vib)  - vibrational entropy
     S(rot)  - rotational entropy
     S(trans)- translational entropy
The entropies will be listed as multiplied by the temperature to get
units of energy

Electronic entropy                ...      0.00000000 Eh      0.00 kcal/mol
Vibrational entropy               ...      0.00169050 Eh      1.06 kcal/mol
Rotational entropy                ...      0.01026911 Eh      6.44 kcal/mol
Translational entropy             ...      0.01771022 Eh     11.11 kcal/mol
-----------------------------------------------------------------------
Final entropy term                ...      0.02966983 Eh     18.62 kcal/mol

In case the symmetry of your molecule has not been determined correctly
or in case you have a reason to use a different symmetry number we print 
out the resulting rotational entropy values for sn=1,12 :
 --------------------------------------------------------
|  sn= 1 | S(rot)=       0.01026911 Eh      6.44 kcal/mol|
|  sn= 2 | S(rot)=       0.00961465 Eh      6.03 kcal/mol|
|  sn= 3 | S(rot)=       0.00923182 Eh      5.79 kcal/mol|
|  sn= 4 | S(rot)=       0.00896019 Eh      5.62 kcal/mol|
|  sn= 5 | S(rot)=       0.00874950 Eh      5.49 kcal/mol|
|  sn= 6 | S(rot)=       0.00857736 Eh      5.38 kcal/mol|
|  sn= 7 | S(rot)=       0.00843181 Eh      5.29 kcal/mol|
|  sn= 8 | S(rot)=       0.00830574 Eh      5.21 kcal/mol|
|  sn= 9 | S(rot)=       0.00819453 Eh      5.14 kcal/mol|
|  sn=10 | S(rot)=       0.00809505 Eh      5.08 kcal/mol|
|  sn=11 | S(rot)=       0.00800506 Eh      5.02 kcal/mol|
|  sn=12 | S(rot)=       0.00792290 Eh      4.97 kcal/mol|
 --------------------------------------------------------


-------------------
GIBBS FREE ENERGY
-------------------

The Gibbs free energy is G = H - T*S

Total enthalpy                    ...   -153.52511487 Eh 
Total entropy correction          ...     -0.02966983 Eh    -18.62 kcal/mol
-----------------------------------------------------------------------
Final Gibbs free energy         ...   -153.55478470 Eh

For completeness - the Gibbs free energy minus the electronic energy
G-E(el)                           ...      0.03150831 Eh     19.77 kcal/mol


Timings for individual modules:

Sum of individual times         ...      942.269 sec (=  15.704 min)
GTO integral calculation        ...        2.746 sec (=   0.046 min)   0.3 %
SCF iterations                  ...       40.501 sec (=   0.675 min)   4.3 %
MP2 module                      ...      141.018 sec (=   2.350 min)  15.0 %
Geometry relaxation             ...        0.200 sec (=   0.003 min)   0.0 %
Analytical frequency calculation...      757.804 sec (=  12.630 min)  80.4 %
                             ****ORCA TERMINATED NORMALLY****
TOTAL RUN TIME: 0 days 0 hours 15 minutes 43 seconds 925 msec